<?xml version="1.0"?>
<VTKFile type="UnstructuredGrid"  version="0.1"  >
<UnstructuredGrid>
<Piece  NumberOfPoints="1746" NumberOfCells="6363">
<Points>
<DataArray  type="Float64"  NumberOfComponents="3"  format="ascii">0 0 0  0 10 0  100 10 0  100 0 0  0 0 10  0 10 10  100 10 10  100 0 10  0 1.99999999999682 0  0 3.999999999991016 0  0 5.999999999993918 0  0 7.99999999999696 0  2.040816326522618 10 0  4.08163265304494 10 0  6.122448979566927 10 0  8.163265306090322 10 0  10.20408163261398 10 0  12.2448979591374 10 0  14.28571428565812 10 0  16.32653061217814 10 0  18.36734693869818 10 0  20.4081632652182 10 0  22.44897959173824 10 0  24.48979591825827 10 0  26.5306122447783 10 0  28.57142857129833 10 0  30.61224489781837 10 0  32.653061224342 10 0  34.69387755086926 10 0  36.73469387739654 10 0  38.77551020392381 10 0  40.81632653045107 10 0  42.85714285697835 10 0  44.89795918350562 10 0  46.93877551003289 10 0  48.97959183656015 10 0  51.02040816308742 10 0  53.0612244896147 10 0  55.10204081614197 10 0  57.14285714266924 10 0  59.18367346919652 10 0  61.22448979572379 10 0  63.26530612225105 10 0  65.30612244878995 10 0  67.34693877533171 10 0  69.38775510187348 10 0  71.42857142841525 10 0  73.46938775495701 10 0  75.51020408149878 10 0  77.55102040804056 10 0  79.59183673458233 10 0  81.63265306112409 10 0  83.67346938766586 10 0  85.71428571420763 10 0  87.75510204074941 10 0  89.79591836729116 10 0  91.83673469383294 10 0  93.87755102037471 10 0  95.91836734691645 10 0  97.95918367345823 10 0  100 8 0  100 6 0  100 3.999999999999999 0  100 2 0  97.95918367348388 0 0  95.91836734696776 0 0  93.87755102045165 0 0  91.83673469393553 0 0  89.7959183674194 0 0  87.7551020409033 0 0  85.71428571438717 0 0  83.67346938787105 0 0  81.63265306135494 0 0  79.59183673483882 0 0  77.55102040832271 0 0  75.51020408180659 0 0  73.46938775529048 0 0  71.42857142877438 0 0  69.38775510225825 0 0  67.34693877574213 0 0  65.30612244922602 0 0  63.26530612270702 0 0  61.22448979617641 0 0  59.1836734696458 0 0  57.14285714311519 0 0  55.10204081658458 0 0  53.06122449005397 0 0  51.02040816352336 0 0  48.97959183699275 0 0  46.93877551046214 0 0  44.89795918393153 0 0  42.85714285740092 0 0  40.81632653087031 0 0  38.77551020433969 0 0  36.73469387780908 0 0  34.69387755126684 0 0  32.65306122472174 0 0  30.61224489817663 0 0  28.57142857163151 0 0  26.5306122450864 0 0  24.48979591854129 0 0  22.44897959199619 0 0  20.40816326545108 0 0  18.36734693890595 0 0  16.32653061236086 0 0  14.28571428581576 0 0  12.24489795927065 0 0  10.20408163272553 0 0  8.163265306180435 0 0  6.122448979635323 0 0  4.08163265309021 0 0  2.040816326545098 0 0  0 0 1.99999999999682  0 0 3.999999999991016  0 0 5.999999999993918  0 0 7.99999999999696  0 1.99999999999682 10  0 3.999999999991016 10  0 5.999999999993918 10  0 7.99999999999696 10  2.040816326522618 10 10  4.08163265304494 10 10  6.122448979566927 10 10  8.163265306090322 10 10  10.20408163261398 10 10  12.2448979591374 10 10  14.28571428565812 10 10  16.32653061217814 10 10  18.36734693869818 10 10  20.4081632652182 10 10  22.44897959173824 10 10  24.48979591825827 10 10  26.5306122447783 10 10  28.57142857129833 10 10  30.61224489781837 10 10  32.653061224342 10 10  34.69387755086926 10 10  36.73469387739654 10 10  38.77551020392381 10 10  40.81632653045107 10 10  42.85714285697835 10 10  44.89795918350562 10 10  46.93877551003289 10 10  48.97959183656015 10 10  51.02040816308742 10 10  53.0612244896147 10 10  55.10204081614197 10 10  57.14285714266924 10 10  59.18367346919652 10 10  61.22448979572379 10 10  63.26530612225105 10 10  65.30612244878995 10 10  67.34693877533171 10 10  69.38775510187348 10 10  71.42857142841525 10 10  73.46938775495701 10 10  75.51020408149878 10 10  77.55102040804056 10 10  79.59183673458233 10 10  81.63265306112409 10 10  83.67346938766586 10 10  85.71428571420763 10 10  87.75510204074941 10 10  89.79591836729116 10 10  91.83673469383294 10 10  93.87755102037471 10 10  95.91836734691645 10 10  97.95918367345823 10 10  100 8 10  100 6 10  100 3.999999999999999 10  100 2 10  97.95918367348388 0 10  95.91836734696776 0 10  93.87755102045165 0 10  91.83673469393553 0 10  89.7959183674194 0 10  87.7551020409033 0 10  85.71428571438717 0 10  83.67346938787105 0 10  81.63265306135494 0 10  79.59183673483882 0 10  77.55102040832271 0 10  75.51020408180659 0 10  73.46938775529048 0 10  71.42857142877438 0 10  69.38775510225825 0 10  67.34693877574213 0 10  65.30612244922602 0 10  63.26530612270702 0 10  61.22448979617641 0 10  59.1836734696458 0 10  57.14285714311519 0 10  55.10204081658458 0 10  53.06122449005397 0 10  51.02040816352336 0 10  48.97959183699275 0 10  46.93877551046214 0 10  44.89795918393153 0 10  42.85714285740092 0 10  40.81632653087031 0 10  38.77551020433969 0 10  36.73469387780908 0 10  34.69387755126684 0 10  32.65306122472174 0 10  30.61224489817663 0 10  28.57142857163151 0 10  26.5306122450864 0 10  24.48979591854129 0 10  22.44897959199619 0 10  20.40816326545108 0 10  18.36734693890595 0 10  16.32653061236086 0 10  14.28571428581576 0 10  12.24489795927065 0 10  10.20408163272553 0 10  8.163265306180435 0 10  6.122448979635323 0 10  4.08163265309021 0 10  2.040816326545098 0 10  0 10 1.99999999999682  0 10 3.999999999991016  0 10 5.999999999993918  0 10 7.99999999999696  100 10 1.99999999999682  100 10 3.999999999991016  100 10 5.999999999993918  100 10 7.99999999999696  100 0 1.99999999999682  100 0 3.999999999991016  100 0 5.999999999993918  100 0 7.99999999999696  94.85993571826128 4.779747105670982 0  5.235048374348595 4.932753063008869 0  88.79303223910742 4.838110293971797 0  82.67269945525874 5.319892815575127 0  13.18683771608545 4.785348514916058 0  76.54463955266799 5.170814442440545 0  19.36811687131273 4.680107184423488 0  70.42219057310993 5.170814442435285 0  25.49617677391495 4.82918555755993 0  64.46710344521841 4.940175501247056 0  31.61862575348652 4.829185557564751 0  37.7410747330718 4.829185557569836 0  43.86352371265475 4.829185557570525 0  49.98597269223784 4.829185557571225 0  56.12584431691847 4.818429615388678 0  9.122394192216349 5.730277943524691 0  60.19394454016815 5.765711659424172 0  91.92694570904411 3.360870276081407 0  53.03118969763514 3.442825177787606 0  46.93877551003317 3.437109537703218 0  40.81632653045138 3.437109537702867 0  34.69387755087162 3.437109537701298 0  67.08098054030286 6.656030811615055 0  28.57142857130119 3.437109537693694 0  16.30596371375627 6.720414153696734 0  73.46938775528858 6.562890462310477 0  22.44897959174018 3.437109537690735 0  85.71428571438901 3.437109537673956 0  79.59183673483673 6.562890462312961 0  79.66304823021956 3.372334419779254 0  85.7854972096882 6.627665580198224 0  73.54059925067058 3.372334419777471 0  16.25531911687651 3.372334419801176 0  67.41815027112078 3.372334419775774 0  22.37776809635581 6.627665580221645 0  28.50021707591747 6.627665580223296 0  34.62266605548678 6.627665580226116 0  40.74511503506807 6.627665580227093 0  46.86756401464994 6.627665580227309 0  52.80697278895492 6.718554768851761 0  92.33182168106092 6.760013105810213 0  7.542798069326826 3.117877085846585 0  61.5987860671895 3.245045281557278 0  10.57159896893068 3.238484100991482 0  58.75518274113256 3.223124500199889 0  97.28105879266516 3.013656483415236 0  2.928094354771825 7.08945836095297 0  97.13655219810391 7.119347307515087 0  2.695598316848782 2.965141454753904 0  11.57962258877646 7.260106234294832 0  6.618760987124692 7.207751910072864 0  62.65934311397069 7.272210797810218 0  57.74882015114562 7.272210797957989 0  50.00000000025803 2.39587671805713 0  43.87755102066625 2.395876718056622 0  37.7551020410744 2.395876718056079 0  70.4081632651444 7.604123281947971 0  31.63265306144916 2.395876718051716 0  76.53061224476969 7.604123281951973 0  88.77781493603268 2.259761964037518 0  25.51020408181384 2.395876718047708 0  82.65306122439497 7.604123281956042 0  82.70067185467511 1.770058779637443 0  19.38775510217852 2.395876718043717 0  88.83873310106864 8.267071024073202 0  19.34014447189443 8.229941220361599 0  76.5874696967407 1.733782935319325 0  13.24653016931303 1.733453384963217 0  25.45334662984101 8.266217064680415 0  70.46502071719181 1.733782935318183 0  31.57579560940281 8.266217064681181 0  64.31171966524684 1.909178420620583 0  37.69824458898256 8.266217064681882 0  43.82069356856449 8.266217064682067 0  49.9431425481464 8.266217064682223 0  56.05984211711248 1.728489607223137 0  94.17357855879692 2.65714745619839 0  94.63586392311517 7.574063100111849 0  54.99476007965337 7.497664047794574 0  14.37776234388124 7.505691871921183 0  65.20152518328531 7.59554743657436 0  5.572352192231474 1.915442944454167 0  97.98251563059441 4.908046044394783 0  2.012298763030678 4.908584449455751 0  9.159852951409746 8.58006093528104 0  60.19989562330488 8.602190403751548 0  58.21390506300683 5.25772032112612 0  62.18761373572926 5.316488418604454 0  11.12308302267509 5.198191617719133 0  7.133407564587363 5.28801669467119 0  4.964310734518364 8.239291724380339 0  90.96208977656048 8.364600394167205 0  91.05960613196817 5.040616168224561 0  9.139015535763129 1.893873287621522 0  60.18488337350594 1.914672453785065 0  90.80791138350396 1.81844098290516 0  17.39634391318199 1.804541673309994 0  84.64447241338615 8.195458326692048 0  35.59109516493898 8.30523024786795 0  41.71354414452063 8.305230247868192 0  47.83599312410252 8.305230247868282 0  23.34619720580385 8.305230247865843 0  29.46864618536534 8.305230247866531 0  78.69461912077425 1.694769752134655 0  72.57217014122531 1.694769752133882 0  66.44457914960984 1.724002333017042 0  17.37205625062436 4.831308906760838 0  41.70149591526762 5.020159550560242 0  35.57904693568594 5.020159550559791 0  47.82394489485024 5.020159550560209 0  54.29973165066736 5.365379481148867 0  84.66876007594334 5.168691093232654 0  23.33414897654153 5.020159550557125 0  29.45659795610906 5.020159550556947 0  78.70666735003709 4
[...]
<PointData  Vectors="f_15"> 
<DataArray  type="Float64"  Name="f_15"  NumberOfComponents="3" format="ascii">0.0000000000000000e+00 0.0000000000000000e+00 0.0000000000000000e+00  0.0000000000000000e+00 0.0000000000000000e+00 0.0000000000000000e+00  1.0000000000000000e+00 0.0000000000000000e+00 0.0000000000000000e+00  1.0000000000000000e+00 0.0000000000000000e+00 0.0000000000000000e+00  0.0000000000000000e+00 0.0000000000000000e+00 0.0000000000000000e+00  0.0000000000000000e+00 0.0000000000000000e+00 0.0000000000000000e+00  1.0000000000000000e+00 0.0000000000000000e+00 0.0000000000000000e+00  1.0000000000000000e+00 0.0000000000000000e+00 0.0000000000000000e+00  0.0000000000000000e+00 0.0000000000000000e+00 0.0000000000000000e+00  0.0000000000000000e+00 0.0000000000000000e+00 0.0000000000000000e+00  0.0000000000000000e+00 0.0000000000000000e+00 0.0000000000000000e+00  0.0000000000000000e+00 0.0000000000000000e+00 0.0000000000000000e+00  0.0000000000000000e+00 0.0000000000000000e+00 0.0000000000000000e+00  0.0000000000000000e+00 0.0000000000000000e+00 0.0000000000000000e+00  0.0000000000000000e+00 0.0000000000000000e+00 0.0000000000000000e+00  0.0000000000000000e+00 0.0000000000000000e+00 0.0000000000000000e+00  0.0000000000000000e+00 0.0000000000000000e+00 0.0000000000000000e+00  0.0000000000000000e+00 0.0000000000000000e+00 0.0000000000000000e+00  0.0000000000000000e+00 0.0000000000000000e+00 0.0000000000000000e+00  0.0000000000000000e+00 0.0000000000000000e+00 0.0000000000000000e+00  0.0000000000000000e+00 0.0000000000000000e+00 0.0000000000000000e+00  0.0000000000000000e+00 0.0000000000000000e+00 0.0000000000000000e+00  0.0000000000000000e+00 0.0000000000000000e+00 0.0000000000000000e+00  0.0000000000000000e+00 0.0000000000000000e+00 0.0000000000000000e+00  0.0000000000000000e+00 0.0000000000000000e+00 0.0000000000000000e+00  0.0000000000000000e+00 0.0000000000000000e+00 0.0000000000000000e+00  0.0000000000000000e+00 0.0000000000000000e+00 0.0000000000000000e+00  0.0000000000000000e+00 0.0000000000000000e+00 0.0000000000000000e+00  0.0000000000000000e+00 0.0000000000000000e+00 0.0000000000000000e+00  0.0000000000000000e+00 0.0000000000000000e+00 0.0000000000000000e+00  0.0000000000000000e+00 0.0000000000000000e+00 0.0000000000000000e+00  0.0000000000000000e+00 0.0000000000000000e+00 0.0000000000000000e+00  0.0000000000000000e+00 0.0000000000000000e+00 0.0000000000000000e+00  0.0000000000000000e+00 0.0000000000000000e+00 0.0000000000000000e+00  0.0000000000000000e+00 0.0000000000000000e+00 0.0000000000000000e+00  0.0000000000000000e+00 0.0000000000000000e+00 0.0000000000000000e+00  0.0000000000000000e+00 0.0000000000000000e+00 0.0000000000000000e+00  0.0000000000000000e+00 0.0000000000000000e+00 0.0000000000000000e+00  0.0000000000000000e+00 0.0000000000000000e+00 0.0000000000000000e+00  0.0000000000000000e+00 0.0000000000000000e+00 0.0000000000000000e+00  0.0000000000000000e+00 0.0000000000000000e+00 0.0000000000000000e+00  0.0000000000000000e+00 0.0000000000000000e+00 0.0000000000000000e+00  0.0000000000000000e+00 0.0000000000000000e+00 0.0000000000000000e+00  0.0000000000000000e+00 0.0000000000000000e+00 0.0000000000000000e+00  0.0000000000000000e+00 0.0000000000000000e+00 0.0000000000000000e+00  0.0000000000000000e+00 0.0000000000000000e+00 0.0000000000000000e+00  0.0000000000000000e+00 0.0000000000000000e+00 0.0000000000000000e+00  0.0000000000000000e+00 0.0000000000000000e+00 0.0000000000000000e+00  0.0000000000000000e+00 0.0000000000000000e+00 0.0000000000000000e+00  0.0000000000000000e+00 0.0000000000000000e+00 0.0000000000000000e+00  0.0000000000000000e+00 0.0000000000000000e+00 0.0000000000000000e+00  0.0000000000000000e+00 0.0000000000000000e+00 0.0000000000000000e+00  0.0000000000000000e+00 0.0000000000000000e+00 0.0000000000000000e+00  0.0000000000000000e+00 0.0000000000000000e+00 0.0000000000000000e+00  0.0000000000000000e+00 0.0000000000000000e+00 0.0000000000000000e+00  0.0000000000000000e+00 0.0000000000000000e+00 0.0000000000000000e+00  0.0000000000000000e+00 0.0000000000000000e+00 0.0000000000000000e+00  0.0000000000000000e+00 0.0000000000000000e+00 0.0000000000000000e+00  1.0000000000000000e+00 0.0000000000000000e+00 0.0000000000000000e+00  1.0000000000000000e+00 0.0000000000000000e+00 0.0000000000000000e+00  1.0000000000000000e+00 0.0000000000000000e+00 0.0000000000000000e+00  1.0000000000000000e+00 0.0000000000000000e+00 0.0000000000000000e+00  1.0000000000000000e+00 0.0000000000000000e+00 0.0000000000000000e+00  1.0000000000000000e+00 0.0000000000000000e+00 0.0000000000000000e+00  1.0000000000000000e+00 0.0000000000000000e+00 0.0000000000000000e+00  1.0000000000000000e+00 0.0000000000000000e+00 0.0000000000000000e+00  0.0000000000000000e+00 0.0000000000000000e+00 0.0000000000000000e+00  0.0000000000000000e+00 0.0000000000000000e+00 0.0000000000000000e+00  0.0000000000000000e+00 0.0000000000000000e+00 0.0000000000000000e+00  0.0000000000000000e+00 0.0000000000000000e+00 0.0000000000000000e+00  0.0000000000000000e+00 0.0000000000000000e+00 0.0000000000000000e+00  0.0000000000000000e+00 0.0000000000000000e+00 0.0000000000000000e+00  0.0000000000000000e+00 0.0000000000000000e+00 0.0000000000000000e+00  0.0000000000000000e+00 0.0000000000000000e+00 0.0000000000000000e+00  0.0000000000000000e+00 0.0000000000000000e+00 0.0000000000000000e+00  0.0000000000000000e+00 0.0000000000000000e+00 0.0000000000000000e+00  0.0000000000000000e+00 0.0000000000000000e+00 0.0000000000000000e+00  0.0000000000000000e+00 0.0000000000000000e+00 0.0000000000000000e+00  0.0000000000000000e+00 0.0000000000000000e+00 0.0000000000000000e+00  0.0000000000000000e+00 0.0000000000000000e+00 0.0000000000000000e+00  0.0000000000000000e+00 0.0000000000000000e+00 0.0000000000000000e+00  0.0000000000000000e+00 0.0000000000000000e+00 0.0000000000000000e+00  0.0000000000000000e+00 0.0000000000000000e+00 0.0000000000000000e+00  0.0000000000000000e+00 0.0000000000000000e+00 0.0000000000000000e+00  0.0000000000000000e+00 0.0000000000000000e+00 0.0000000000000000e+00  0.0000000000000000e+00 0.0000000000000000e+00 0.0000000000000000e+00  0.0000000000000000e+00 0.0000000000000000e+00 0.0000000000000000e+00  0.0000000000000000e+00 0.0000000000000000e+00 0.0000000000000000e+00  0.0000000000000000e+00 0.0000000000000000e+00 0.0000000000000000e+00  0.0000000000000000e+00 0.0000000000000000e+00 0.0000000000000000e+00  0.0000000000000000e+00 0.0000000000000000e+00 0.0000000000000000e+00  0.0000000000000000e+00 0.0000000000000000e+00 0.0000000000000000e+00  0.0000000000000000e+00 0.0000000000000000e+00 0.0000000000000000e+00  0.0000000000000000e+00 0.0000000000000000e+00 0.0000000000000000e+00  0.0000000000000000e+00 0.0000000000000000e+00 0.0000000000000000e+00  0.0000000000000000e+00 0.0000000000000000e+00 0.0000000000000000e+00  0.0000000000000000e+00 0.0000000000000000e+00 0.0000000000000000e+00  0.0000000000000000e+00 0.0000000000000000e+00 0.0000000000000000e+00  0.0000000000000000e+00 0.0000000000000000e+00 0.0000000000000000e+00  0.0000000000000000e+00 0.0000000000000000e+00 0.0000000000000000e+00  0.0000000000000000e+00 0.0000000000000000e+00 0.0000000000000000e+00  0.0000000000000000e+00 0.0000000000000000e+00 0.0000000000000000e+00  0.0000000000000000e+00 0.0000000000000000e+00 0.0000000000000000e+00  0.0000000000000000e+00 0.0000000000000000e+00 0.0000000000000000e+00  0.0000000000000000e+00 0.0000000000000000e+00 0.0000000000000000e+00  0.0000000000000000e+00 0.0000000000000000e+00 0.0000000000000000e+00  0.0000000000000000e+00 0.0000000000000000e+00 0.0000000000000000e+00  0.0000000000000000e+00 0.0000000000000000e+00 0.0000000000000000e+00  0.0000000000000000e+00 0.0000000000000000e+00 0.0000000000000000e+00  0.0000000000000000e+00 0.0000000000000000e+00 0.0000000000000000e+00  0.0000000000000000e+00 0.0000000000000000e+00 0.0000000000000000e+00  0.0000000000000000e+00 0.0000000000000000e+00 0.0000000000000000e+00  0.0000000000000000e+00 0.0000000000000000e+00 0.0000000000000000e+00  0.0000000000000000e+00 0.0000000000000000e+00 0.0000000000000000e+00  0.0000000000000000e+00 0.0000000000000000e+00 0.0000000000000000e+00  0.0000000000000000e+00 0.0000000000000000e+00 0.0000000000000000e+00  0.0000000000000000e+00 0.0000000000000000e+00 0.0000000000000000e+00  0.0000000000000000e+00 0.0000000000000000e+00 0.0000000000000000e+00  0.0000000000000000e+00 0.0000000000000000e+00 0.0000000000000000e+00  0.0000000000000000e+00 0.0000000000000000e+00 0.0000000000000000e+00  9.2239498900659926e-06 -6.2458902834174104e-06 -7.1411241353033607e-06  1.8985719592322394e-05 -1.0427373755286215e-05 -1.0480242679549541e-05  3.0336822119575761e-05 -1.2161242729328468e-05 -1.2691978721325265e-05  4.4443397590817509e-05 -1.4564816199013815e-05 -1.5447092428708567e-05  5.9333256236864100e-05 -1.7736544371265341e-05 -1.8989773651077762e-05  7.9923038719094364e-05 -2.1782997556795281e-05 -2.3422792014176818e-05  1.0472465800620013e-04 -2.6246116653041718e-05 -2.7946696530403009e-05  1.3622250059202478e-04 -3.4989139914351026e-05 -3.6383547471555856e-05  1.7489818980387305e-04 -4.2927345970660531e-05 -4.7142300461204491e-05  2.2428630431489463e-04 -5.5546030944367152e-05 -5.8530422550424721e-05  2.8821259487044396e-04 -7.0708020252452630e-05 -6.9653241649424597e-05  3.6969490646925827e-04 -8.8022961369287785e-05 -8.8233771089843175e-05  4.7101252774628936e-04 -1.1465127193249522e-04 -1.0985218315240957e-04  6.0835088774223271e-04 -1.5526360895192068e-04 -1.4343014154428611e-04  7.6943339281898733e-04 -1.9523527582418273e-04 -1.8609368669500915e-04  9.8585908026546957e-04 -2.4641421899097409e-04 -2.3749083706008680e-04  1.2550482586165649e-03 -3.0688363584047357e-04 -3.0633246959467617e-04  1.6136528134343938e-03 -3.8158665834985863e-04 -3.9976012230171154e-04  2.0642754214035219e-03 -4.8317519174525647e-04 -5.0295908076459573e-04  2.6447513904778964e-03 -6.3570449342621250e-04 -6.3922070268194109e-04  3.3733941417687066e-03 -8.3930362666772239e-04 -7.9286510489681478e-04  4.3408070253685132e-03 -1.1250863350884242e-03 -1.0307717177865643e-03  5.4771672919069611e-03 -1.2922690551786184e-03 -1.2564844382865301e-03  7.0162188702863389e-03 -1.7707641775351140e-03 -1.6973226266927264e-03  8.8362662434874062e-03 -2.2206484997004399e-03 -2.1140288495007085e-03  1.1257058501598059e-02 -2.7998817749491645e-03 -2.6824609184108749e-03  1.4570378220904503e-02 -3.6002186115461315e-03 -3.5472073530067321e-03  1.8490870037749685e-02 -4.3356428082035265e-03 -4.3532163796491594e-03  2.4002157930335527e-02 -5.8702899009752639e-03 -5.7297612764299509e-03  3.0574456515405291e-02 -7.6619422804637275e-03 -7.0466602290334334e-03  3.8565472170270405e-02 -9.4073458612709392e-03 -9.2659108745458095e-03  4.9367146956448581e-02 -1.1893831701348717e-02 -1.1801635278104168e-02  6.3747312449866603e-02 -1.4050952855254623e-02 -1.5230998405531141e-02  8.2155201310161671e-02 -1.8738219785276362e-02 -2.1120355724089671e-02  1.0320228252716018e-01 -2.4990979517788905e-02 -2.5854229749088336e-02  1.3246870889196519e-01 -3.2149625290833081e-02 -3.1870553286440631e-02  1.6921768316411642e-01 -4.1326920128701747e-02 -4.2124322544129178e-02  2.1976259980304361e-01 -5.4376877732288990e-02 -5.9984283607488066e-02  2.8141766989312977e-01 -6.7546921284739339e-02 -7.3284992257672432e-02  3.5821832960972705e-01 -9.0118842847952990e-02 -1.0439081996733852e-01  4.5239396031522738e-01 -1.2226255175294631e-01 -1.3634570786048592e-01  5.6423727471630991e-01 -1.7227601459497796e-01 -1.8360342582284161e-01  6.6764097608440198e-01 -2.1577648151781534e-01 -2.3986332263040641e-01  7.6077219985566802e-01 -2.5229376439341555e-01 -2.9508200369436660e-01  8.0544122303608234e-01 -2.3371019501618320e-01 -3.1497956757034512e-01  8.7384532327849107e-01 -1.5265012263491895e-01 -2.3325419281285156e-01  1.0000000000000000e+00 0.0000000000000000e+00 0.0000000000000000e+00  1.0000000000000000e+00 0.0000000000000000e+00 0.0000000000000000e+00  1.0000000000000000e+00 0.0000000000000000e+00 0.0000000000000000e+00  1.0000000000000000e+00 0.0000000000000000e+00 0.0000000000000000e+00  1.0000000000000000e+00 0.0000000000000000e+00 0.0000000000000000e+00  1.0000000000000000e+00 0.0000000000000000e+00 0.0000000000000000e+00  1.0000000000000000e+00 0.0000000000000000e+00 0.0000000000000000e+00  1.0000000000000000e+00 0.0000000000000000e+00 0.0000000000000000e+00  0.0000000000000000e+00 0.0000000000000000e+00 0.0000000000000000e+00  0.0000000000000000e+00 0.0000000000000000e+00 0.0000000000000000e+00  0.0000000000000000e+00 0.0000000000000000e+00 0.0000000000000000e+00  0.0000000000000000e+00 0.0000000000000000e+00 0.0000000000000000e+00  0.0000000000000000e+00 0.0000000000000000e+00 0.0000000000000000e+00  0.0000000000000000e+00 0.0000000000000000e+00 0.0000000000000000e+00  0.0000000000000000e+00 0.0000000000000000e+00 0.0000000000000000e+00  0.0000000000000000e+00 0.0000000000000000e+00 0.0000000000000000e+00  0.0000000000000000e+00 0.0000000000000000e+00 0.0000000000000000e+00  0.0000000000000000e+00 0.0000000000000000e+00 0.0000000000000000e+00  0.0000000000000000e+00 0.0000000000000000e+00 0.0000000000000000e+00  0.0000000000000000e+00 0.0000000000000000e+00 0.0000000000000000e+00  0.0000000000000000e+00 0.0000000000000000e+00 0.0000000000000000e+00  0.0000000000000000e+00 0.0000000000000000e+00 0.0000000000000000e+00  0.0000000000000000e+00 0.0000000000000000e+00 0.0000000000000000e+00  0.0000000000000000e+00 0.0000000000000000e+00 0.0000000000000000e+00  0.0000000000000000e+00 0.0000000000000000e+00 0.0000000000000000e+00  0.0000000000000000e+00 0.0000000000000000e+00 0.0000000000000000e+00  0.0000000000000000e+00 0.0000000000000000e+00 0.0000000000000000e+00  0.0000000000000000e+00 0.0000000000000000e+00 0.0000000000000000e+00  0.0000000000000000e+00 0.0000000000000000e+00 0.0000000000000000e+00  0.0000000000000000e+00 0.0000000000000000e+00 0.0000000000000000e+00  0.0000000000000000e+00 0.0000000000000000e+00 0.0000000000000000e+00  0.0000000000000000e+00 0.0000000000000000e+00 0.0000000000000000e+00  0.0000000000000000e+00 0.0000000000000000e+00 0.0000000000000000e+00  0.0000000000000000e+00 0.0000000000000000e+00 0.0000000000000000e+00  0.0000000000000000e+00 0.0000000000000000e+00 0.0000000000000000e+00  0.0000000000000000e+00 0.0000000000000000e+00 0.0000000000000000e+00  0.0000000000000000e+00 0.0000000000000000e+00 0.0000000000000000e+00  0.0000000000000000e+00 0.0000000000000000e+00 0.0000000000000000e+00  0.0000000000000000e+00 0.0000000000000000e+00 0.0000000000000000e+00  0.0000000000000000e+00 0.0000000000000000e+00 0.0000000000000000e+00  0.0000000000000000e+00 0.0000000000000000e+00 0.0000000000000000e+00  0.0000000000000000e+00 0.0000000000000000e+00 0.0000000000000000e+00  0.0000000000000000e+00 0.0000000000000000e+00 0.0000000000000000e+00  0.0000000000000000e+00 0.0000000000000000e+00 0.0000000000000000e+00  0.0000000000000000e+00 0.0000000000000000e+00 0.0000000000000000e+00  0.0000000000000000e+00 0.0000000000000000e+00 0.0000000000000000e+00  0.0000000000000000e+00 0.0000000000000000e+00 0.0000000000000000e+00  0.0000000000000000e+00 0.0000000000000000e+00 0.0000000000000000e+00  0.0000000000000000e+00 0.0000000000000000e+00 0.0000000000000000e+00  0.0000000000000000e+00 0.0000000000000000e+00 0.0000000000000000e+00  0.0000000000000000e+00 0.0000000000000000e+00 0.0000000000000000e+00  0.0000000000000000e+00 0.0000000000000000e+00 0.0000000000000000e+00  0.0000000000000000e+00 0.0000000000000000e+00 0.0000000000000000e+00  0.0000000000000000e+00 0.0000000000000000e+00 0.0000000000000000e+00  0.0000000000000000e+00 0.0000000000000000e+00 0.0000000000000000e+00  0.0000000000000000e+00 0.0000000000000000e+00 0.0000000000000000e+00  0.0000000000000000e+00 0.0000000000000000e+00 0.0000000000000000e+00  0.0000000000000000e+00 0.0000000000000000e+00 0.0000000000000000e+00  1.0000000000000000e+00 0.0000000000000000e+00 0.0000000000000000e+00  1.0000000000000000e+00 0.0000000000000000e+00 0.0000000000000000e+00  1.0000000000000000e+00 0.0000000000000000e+00 0.0000000000000000e+00  1.0000000000000000e+00 0.0000000000000000e+00 0.0000000000000000e+00  1.0000000000000000e+00 0.0000000000000000e+00 0.0000000000000000e+00  1.0000000000000000e+00 0.0000000000000000e+00 0.0000000000000000e+00  1.0000000000000000e+00 0.0000000000000000e+00 0.0000000000000000e+00  1.0000000000000000e+00 0.0000000000000000e+00 0.0000000000000000e+00  0.0000000000000000e+00 0.0000000000000000e+00 0.0000000000000000e+00  0.0000000000000000e+00 0.0000000000000000e+00 0.0000000000000000e+00  0.0000000000000000e+00 0.0000000000000000e+00 0.0000000000000000e+00  0.0000000000000000e+00 0.0000000000000000e+00 0.0000000000000000e+00  0.0000000000000000e+00 0.0000000000000000e+00 0.0000000000000000e+00  0.0000000000000000e+00 0.0000000000000000e+00 0.0000000000000000e+00  0.0000000000000000e+00 0.0000000000000000e+00 0.0000000000000000e+00  0.0000000000000000e+00 0.0000000000000000e+00 0.0000000000000000e+00  0.0000000000000000e+00 0.0000000000000000e+00 0.0000000000000000e+00  0.0000000000000000e+00 0.0000000000000000e+00 0.0000000000000000e+00  0.0000000000000000e+00 0.0000000000000000e+00 0.0000000000000000e+00  0.0000000000000000e+00 0.0000000000000000e+00 0.0000000000000000e+00  0.0000000000000000e+00 0.0000000000000000e+00 0.0000000000000000e+00  0.0000000000000000e+00 0.0000000000000000e+00 0.0000000000000000e+00  0.0000000000000000e+00 0.0000000000000000e+00 0.0000000000000000e+00  0.0000000000000000e+00 0.0000000000000000e+00 0.0000000000000000e+00  0.0000000000000000e+00 0.0000000000000000e+00 0.0000000000000000e+00  0.0000000000000000e+00 0.0000000000000000e+00 0.0000000000000000e+00  0.0000000000000000e+00 0.0000000000000000e+00 0.0000000000000000e+00  0.0000000000000000e+00 0.0000000000000000e+00 0.0000000000000000e+00  0.0000000000000000e+00 0.0000000000000000e+00 0.0000000000000000e+00  0.0000000000000000e+00 0.0000000000000000e+00 0.0000000000000000e+00  0.0000000000000000e+00 0.0000000000000000e+00 0.0000000000000000e+00  0.0000000000000000e+00 0.0000000000000000e+00 0.0000000000000000e+00  0.0000000000000000e+00 0.0000000000000000e+00 0.0000000000000000e+00  0.0000000000000000e+00 0.0000000000000000e+00 0.0000000000000000e+00  0.0000000000000000e+00 0.0000000000000000e+00 0.0000000000000000e+00  0.0000000000000000e+00 0.0000000000000000e+00 0.0000000000000000e+00  0.0000000000000000e+00 0.0000000000000000e+00 0.0000000000000000e+00  0.0000000000000000e+00 0.0000000000000000e+00 0.0000000000000000e+00  0.0000000000000000e+00 0.0000000000000000e+00 0.0000000000000000e+00  0.0000000000000000e+00 0.0000000000000000e+00 0.0000000000000000e+00  0.0000000000000000e+00 0.0000000000000000e+00 0.0000000000000000e+00  0.0000000000000000e+00 0.0000000000000000e+00 0.0000000000000000e+00  0.0000000000000000e+00 0.0000000000000000e+00 0.0000000000000000e+00  0.0000000000000000e+00 0.0000000000000000e+00 0.0000000000000000e+00  0.0000000000000000e+00 0.0000000000000000e+00 0.0000000000000000e+00  0.0000000000000000e+00 0.0000000000000000e+00 0.0000000000000000e+00  0.0000000000000000e+00 0.0000000000000000e+00 0.0000000000000000e+00  0.0000000000000000e+00 0.0000000000000000e+00 0.0000000000000000e+00  0.0000000000000000e+00 0.0000000000000000e+00 0.0000000000000000e+00  0.0000000000000000e+00 0.0000000000000000e+00 0.0000000000000000e+00  0.0000000000000000e+00 0.0000000000000000e+00 0.0000000000000000e+00  0.0000000000000000e+00 0.0000000000000000e+00 0.0000000000000000e+00  0.0000000000000000e+00 0.0000000000000000e+00 0.0000000000000000e+00  1.0000000000000000e+00 0.0000000000000000e+00 0.0000000000000000e+00  0.0000000000000000e+00 0.0000000000000000e+00 0.0000000000000000e+00  1.0000000000000000e+00 0.0000000000000000e+00 0.0000000000000000e+00  0.0000000000000000e+00 0.0000000000000000e+00 0.0000000000000000e+00  0.0000000000000000e+00 0.0000000000000000e+00 0.0000000000000000e+00  0.0000000000000000e+00 0.0000000000000000e+00 0.000000000000