<?xml version="1.0"?>
<VTKFile type="UnstructuredGrid"  version="0.1"  >
<UnstructuredGrid>
<Piece  NumberOfPoints="7602" NumberOfCells="35455">
<Points>
<DataArray  type="Float64"  NumberOfComponents="3"  format="ascii">0 0 0  0 141.7 0  141.7 141.7 0  141.7 0 0  0 0 120  0 141.7 120  141.7 141.7 120  141.7 0 120  0 6.74761904760499 0  0 13.49523809521216 0  0 20.24285714281774 0  0 26.9904761904156 0  0 33.73809523801501 0  0 40.4857142856119 0  0 47.23333333320927 0  0 53.98095238080603 0  0 60.72857142840396 0  0 67.4761904760105 0  0 74.22380952362987 0  0 80.97142857126366 0  0 87.71904761890011 0  0 94.46666666653655 0  0 101.214285714173 0  0 107.9619047618094 0  0 114.7095238094459 0  0 121.4571428570803 0  0 128.204761904716 0  0 134.9523809523605 0  6.74761904760499 141.7 0  13.49523809521216 141.7 0  20.24285714281774 141.7 0  26.9904761904156 141.7 0  33.73809523801501 141.7 0  40.4857142856119 141.7 0  47.23333333320927 141.7 0  53.98095238080603 141.7 0  60.72857142840396 141.7 0  67.4761904760105 141.7 0  74.22380952362987 141.7 0  80.97142857126366 141.7 0  87.71904761890011 141.7 0  94.46666666653655 141.7 0  101.214285714173 141.7 0  107.9619047618094 141.7 0  114.7095238094459 141.7 0  121.4571428570803 141.7 0  128.204761904716 141.7 0  134.9523809523605 141.7 0  141.7 134.9523809523894 0  141.7 128.2047619047839 0  141.7 121.4571428571718 0  141.7 114.7095238095709 0  141.7 107.961904761972 0  141.7 101.2142857143798 0  141.7 94.46666666678519 0  141.7 87.7190476191918 0  141.7 80.97142857159284 0  141.7 74.22380952398294 0  141.7 67.47619047636417 0  141.7 60.72857142873096 0  141.7 53.98095238109512 0  141.7 47.23333333345927 0  141.7 40.48571428582341 0  141.7 33.73809523818757 0  141.7 26.99047619055175 0  141.7 20.24285714291786 0  141.7 13.49523809528282 0  141.7 6.747619047638864 0  134.9523809523894 0 0  128.2047619047839 0 0  121.4571428571718 0 0  114.7095238095709 0 0  107.961904761972 0 0  101.2142857143798 0 0  94.46666666678519 0 0  87.7190476191918 0 0  80.97142857159284 0 0  74.22380952398294 0 0  67.47619047636417 0 0  60.72857142873096 0 0  53.98095238109512 0 0  47.23333333345927 0 0  40.48571428582341 0 0  33.73809523818757 0 0  26.99047619055175 0 0  20.24285714291786 0 0  13.49523809528282 0 0  6.747619047638864 0 0  0 0 6.666666666663438  0 0 13.33333333333231  0 0 19.99999999999539  0 0 26.666666666656  0 0 33.33333333331368  0 0 39.99999999995454  0 0 46.6666666665954  0 0 53.33333333323625  0 0 59.99999999987851  0 0 66.66666666655745  0 0 73.33333333323775  0 0 79.99999999991806  0 0 86.66666666659837  0 0 93.33333333327867  0 0 99.99999999995899  0 0 106.6666666666393  0 0 113.3333333333196  0 6.74761904760499 120  0 13.49523809521216 120  0 20.24285714281774 120  0 26.9904761904156 120  0 33.73809523801501 120  0 40.4857142856119 120  0 47.23333333320927 120  0 53.98095238080603 120  0 60.72857142840396 120  0 67.4761904760105 120  0 74.22380952362987 120  0 80.97142857126366 120  0 87.71904761890011 120  0 94.46666666653655 120  0 101.214285714173 120  0 107.9619047618094 120  0 114.7095238094459 120  0 121.4571428570803 120  0 128.204761904716 120  0 134.9523809523605 120  6.74761904760499 141.7 120  13.49523809521216 141.7 120  20.24285714281774 141.7 120  26.9904761904156 141.7 120  33.73809523801501 141.7 120  40.4857142856119 141.7 120  47.23333333320927 141.7 120  53.98095238080603 141.7 120  60.72857142840396 141.7 120  67.4761904760105 141.7 120  74.22380952362987 141.7 120  80.97142857126366 141.7 120  87.71904761890011 141.7 120  94.46666666653655 141.7 120  101.214285714173 141.7 120  107.9619047618094 141.7 120  114.7095238094459 141.7 120  121.4571428570803 141.7 120  128.204761904716 141.7 120  134.9523809523605 141.7 120  141.7 134.9523809523894 120  141.7 128.2047619047839 120  141.7 121.4571428571718 120  141.7 114.7095238095709 120  141.7 107.961904761972 120  141.7 101.2142857143798 120  141.7 94.46666666678519 120  141.7 87.7190476191918 120  141.7 80.97142857159284 120  141.7 74.22380952398294 120  141.7 67.47619047636417 120  141.7 60.72857142873096 120  141.7 53.98095238109512 120  141.7 47.23333333345927 120  141.7 40.48571428582341 120  141.7 33.73809523818757 120  141.7 26.99047619055175 120  141.7 20.24285714291786 120  141.7 13.49523809528282 120  141.7 6.747619047638864 120  134.9523809523894 0 120  128.2047619047839 0 120  121.4571428571718 0 120  114.7095238095709 0 120  107.961904761972 0 120  101.2142857143798 0 120  94.46666666678519 0 120  87.7190476191918 0 120  80.97142857159284 0 120  74.22380952398294 0 120  67.47619047636417 0 120  60.72857142873096 0 120  53.98095238109512 0 120  47.23333333345927 0 120  40.48571428582341 0 120  33.73809523818757 0 120  26.99047619055175 0 120  20.24285714291786 0 120  13.49523809528282 0 120  6.747619047638864 0 120  0 141.7 6.666666666663438  0 141.7 13.33333333333231  0 141.7 19.99999999999539  0 141.7 26.666666666656  0 141.7 33.33333333331368  0 141.7 39.99999999995454  0 141.7 46.6666666665954  0 141.7 53.33333333323625  0 141.7 59.99999999987851  0 141.7 66.66666666655745  0 141.7 73.33333333323775  0 141.7 79.99999999991806  0 141.7 86.66666666659837  0 141.7 93.33333333327867  0 141.7 99.99999999995899  0 141.7 106.6666666666393  0 141.7 113.3333333333196  141.7 141.7 6.666666666663438  141.7 141.7 13.33333333333231  141.7 141.7 19.99999999999539  141.7 141.7 26.666666666656  141.7 141.7 33.33333333331368  141.7 141.7 39.99999999995454  141.7 141.7 46.6666666665954  141.7 141.7 53.33333333323625  141.7 141.7 59.99999999987851  141.7 141.7 66.66666666655745  141.7 141.7 73.33333333323775  141.7 141.7 79.99999999991806  141.7 141.7 86.66666666659837  141.7 141.7 93.33333333327867  141.7 141.7 99.99999999995899  141.7 141.7 106.6666666666393  141.7 141.7 113.3333333333196  141.7 0 6.666666666663438  141.7 0 13.33333333333231  141.7 0 19.99999999999539  141.7 0 26.666666666656  141.7 0 33.33333333331368  141.7 0 39.99999999995454  141.7 0 46.6666666665954  141.7 0 53.33333333323625  141.7 0 59.99999999987851  141.7 0 66.66666666655745  141.7 0 73.33333333323775  141.7 0 79.99999999991806  141.7 0 86.66666666659837  141.7 0 93.33333333327867  141.7 0 99.99999999995899  141.7 0 106.6666666666393  141.7 0 113.3333333333196  70.84999999999999 70.84999999999999 80  72.96182511712037 71.31484785971557 79.88275914308718  72.81252327041041 71.75795995015213 79.88275914308718  72.571456016764 72.15861684244457 79.88275914308718  72.24989539303466 72.49808426560747 79.88275914308718  71.862877216599 72.76048910022467 79.88275914308718  71.42849802724734 72.93356158787149 79.88275914308718  70.96706891309597 73.00920905138182 79.88275914308718  70.50016578668098 72.98389429943802 79.88275914308718  70.04962051926799 72.85880102170569 79.88275914308718  69.63650010681613 72.63977844082036 79.88275914308718  69.28012160066127 72.33706780923815 79.88275914308718  68.99714886366499 71.96482353965312 79.88275914308718  68.80081338650758 71.54045136039129 79.88275914308718  68.70029559788975 71.08379444289913 79.88275914308718  68.70029559788975 70.61620555710086 79.88275914308718  68.80081338650758 70.1595486396087 79.88275914308718  68.99714886366499 69.73517646034686 79.88275914308718  69.28012160066127 69.36293219076184 79.88275914308718  69.63650010681613 69.06022155917962 79.88275914308718  70.04962051926799 68.8411989782943 79.88275914308718  70.50016578668098 68.71610570056197 79.88275914308718  70.96706891309597 68.69079094861817 79.88275914308718  71.42849802724734 68.76643841212849 79.88275914308718  71.862877216599 68.93951089977531 79.88275914308718  72.24989539303466 69.20191573439251 79.88275914308718  72.57145601676402 69.54138315755542 79.88275914308718  72.81252327041041 69.94204004984786 79.88275914308718  72.96182511712037 70.38515214028442 79.88275914308718  73.01238036847883 70.84999999999999 79.88275914308718  75.14940880422047 70.84999999999999 79.53241111420174  75.04889101560263 71.77424580329043 79.53241111420174  74.75203774982741 72.65527490004442 79.53241111420174  74.27272953567372 73.45189134889129 79.53241111420174  73.63337829252258 74.12684625005853 79.53241111420174  72.86387937391586 74.64857946252606 79.53241111420174  72.000213694051 74.99269532114371 79.53241111420174  71.08276530022303 75.14310335081986 79.53241111420174  70.15443305965667 75.09277063925332 79.53241111420174  69.25862475615364 74.84405068809617 79.53241111420174  68.43722739036632 74.40857336583215 79.53241111420174  67.7286485902013 73.80670110805207 79.53241111420174  67.16602071282556 73.06657679259671 79.53241111420174  66.77565161246919 72.2228078098677 79.53241111420174  66.57579451440077 71.31484785971557 79.53241111420174  66.57579451440077 70.38515214028442 79.53241111420174  66.77565161246919 69.47719219013229 79.53241111420174  67.16602071282556 68.63342320740328 79.53241111420174  67.7286485902013 67.89329889194792 79.53241111420174  68.43722739036632 67.29142663416783 79.53241111420174  69.25862475615364 66.85594931190381 79.53241111420174  70.15443305965667 66.60722936074667 79.53241111420174  71.08276530022303 66.55689664918013 79.53241111420174  72.000213694051 66.70730467885627 79.53241111420174  72.86387937391586 67.05142053747393 79.53241111420174  73.63337829252258 67.57315374994145 79.53241111420174  74.27272953567372 68.24810865110869 79.53241111420174  74.75203774982741 69.04472509995556 79.53241111420174  75.04889101560263 69.92575419670956 79.53241111420174  77.23603060271959 70.84999999999999 78.95306342365605  77.08672875600963 72.2228078098677 78.95306342365605  76.64580440429481 73.53142465231228 78.95306342365605  75.9338746802091 74.7146610582042 78.95306342365605  74.98422862639769 75.71719020827675 78.95306342365605  73.84127063688102 76.49213495370365 78.95306342365605  72.55844415694233 77.003259739478 78.95306342365605  71.19573272702431 77.22666493869134 78.95306342365605  69.81685521904497 77.15190437252555 78.95306342365605  68.48628641276512 76.78247
[...]
<PointData  Vectors="f_15"> 
<DataArray  type="Float64"  Name="f_15"  NumberOfComponents="3" format="ascii">0.0000000000000000e+00 0.0000000000000000e+00 0.0000000000000000e+00  0.0000000000000000e+00 0.0000000000000000e+00 0.0000000000000000e+00  0.0000000000000000e+00 0.0000000000000000e+00 0.0000000000000000e+00  0.0000000000000000e+00 0.0000000000000000e+00 0.0000000000000000e+00  0.0000000000000000e+00 0.0000000000000000e+00 0.0000000000000000e+00  0.0000000000000000e+00 0.0000000000000000e+00 0.0000000000000000e+00  0.0000000000000000e+00 0.0000000000000000e+00 0.0000000000000000e+00  0.0000000000000000e+00 0.0000000000000000e+00 0.0000000000000000e+00  0.0000000000000000e+00 0.0000000000000000e+00 0.0000000000000000e+00  0.0000000000000000e+00 0.0000000000000000e+00 0.0000000000000000e+00  0.0000000000000000e+00 0.0000000000000000e+00 0.0000000000000000e+00  0.0000000000000000e+00 0.0000000000000000e+00 0.0000000000000000e+00  0.0000000000000000e+00 0.0000000000000000e+00 0.0000000000000000e+00  0.0000000000000000e+00 0.0000000000000000e+00 0.0000000000000000e+00  0.0000000000000000e+00 0.0000000000000000e+00 0.0000000000000000e+00  0.0000000000000000e+00 0.0000000000000000e+00 0.0000000000000000e+00  0.0000000000000000e+00 0.0000000000000000e+00 0.0000000000000000e+00  0.0000000000000000e+00 0.0000000000000000e+00 0.0000000000000000e+00  0.0000000000000000e+00 0.0000000000000000e+00 0.0000000000000000e+00  0.0000000000000000e+00 0.0000000000000000e+00 0.0000000000000000e+00  0.0000000000000000e+00 0.0000000000000000e+00 0.0000000000000000e+00  0.0000000000000000e+00 0.0000000000000000e+00 0.0000000000000000e+00  0.0000000000000000e+00 0.0000000000000000e+00 0.0000000000000000e+00  0.0000000000000000e+00 0.0000000000000000e+00 0.0000000000000000e+00  0.0000000000000000e+00 0.0000000000000000e+00 0.0000000000000000e+00  0.0000000000000000e+00 0.0000000000000000e+00 0.0000000000000000e+00  0.0000000000000000e+00 0.0000000000000000e+00 0.0000000000000000e+00  0.0000000000000000e+00 0.0000000000000000e+00 0.0000000000000000e+00  0.0000000000000000e+00 0.0000000000000000e+00 0.0000000000000000e+00  0.0000000000000000e+00 0.0000000000000000e+00 0.0000000000000000e+00  0.0000000000000000e+00 0.0000000000000000e+00 0.0000000000000000e+00  0.0000000000000000e+00 0.0000000000000000e+00 0.0000000000000000e+00  0.0000000000000000e+00 0.0000000000000000e+00 0.0000000000000000e+00  0.0000000000000000e+00 0.0000000000000000e+00 0.0000000000000000e+00  0.0000000000000000e+00 0.0000000000000000e+00 0.0000000000000000e+00  0.0000000000000000e+00 0.0000000000000000e+00 0.0000000000000000e+00  0.0000000000000000e+00 0.0000000000000000e+00 0.0000000000000000e+00  0.0000000000000000e+00 0.0000000000000000e+00 0.0000000000000000e+00  0.0000000000000000e+00 0.0000000000000000e+00 0.0000000000000000e+00  0.0000000000000000e+00 0.0000000000000000e+00 0.0000000000000000e+00  0.0000000000000000e+00 0.0000000000000000e+00 0.0000000000000000e+00  0.0000000000000000e+00 0.0000000000000000e+00 0.0000000000000000e+00  0.0000000000000000e+00 0.0000000000000000e+00 0.0000000000000000e+00  0.0000000000000000e+00 0.0000000000000000e+00 0.0000000000000000e+00  0.0000000000000000e+00 0.0000000000000000e+00 0.0000000000000000e+00  0.0000000000000000e+00 0.0000000000000000e+00 0.0000000000000000e+00  0.0000000000000000e+00 0.0000000000000000e+00 0.0000000000000000e+00  0.0000000000000000e+00 0.0000000000000000e+00 0.0000000000000000e+00  0.0000000000000000e+00 0.0000000000000000e+00 0.0000000000000000e+00  0.0000000000000000e+00 0.0000000000000000e+00 0.0000000000000000e+00  0.0000000000000000e+00 0.0000000000000000e+00 0.0000000000000000e+00  0.0000000000000000e+00 0.0000000000000000e+00 0.0000000000000000e+00  0.0000000000000000e+00 0.0000000000000000e+00 0.0000000000000000e+00  0.0000000000000000e+00 0.0000000000000000e+00 0.0000000000000000e+00  0.0000000000000000e+00 0.0000000000000000e+00 0.0000000000000000e+00  0.0000000000000000e+00 0.0000000000000000e+00 0.0000000000000000e+00  0.0000000000000000e+00 0.0000000000000000e+00 0.0000000000000000e+00  0.0000000000000000e+00 0.0000000000000000e+00 0.0000000000000000e+00  0.0000000000000000e+00 0.0000000000000000e+00 0.0000000000000000e+00  0.0000000000000000e+00 0.0000000000000000e+00 0.0000000000000000e+00  0.0000000000000000e+00 0.0000000000000000e+00 0.0000000000000000e+00  0.0000000000000000e+00 0.0000000000000000e+00 0.0000000000000000e+00  0.0000000000000000e+00 0.0000000000000000e+00 0.0000000000000000e+00  0.0000000000000000e+00 0.0000000000000000e+00 0.0000000000000000e+00  0.0000000000000000e+00 0.0000000000000000e+00 0.0000000000000000e+00  0.0000000000000000e+00 0.0000000000000000e+00 0.0000000000000000e+00  0.0000000000000000e+00 0.0000000000000000e+00 0.0000000000000000e+00  0.0000000000000000e+00 0.0000000000000000e+00 0.0000000000000000e+00  0.0000000000000000e+00 0.0000000000000000e+00 0.0000000000000000e+00  0.0000000000000000e+00 0.0000000000000000e+00 0.0000000000000000e+00  0.0000000000000000e+00 0.0000000000000000e+00 0.0000000000000000e+00  0.0000000000000000e+00 0.0000000000000000e+00 0.0000000000000000e+00  0.0000000000000000e+00 0.0000000000000000e+00 0.0000000000000000e+00  0.0000000000000000e+00 0.0000000000000000e+00 0.0000000000000000e+00  0.0000000000000000e+00 0.0000000000000000e+00 0.0000000000000000e+00  0.0000000000000000e+00 0.0000000000000000e+00 0.0000000000000000e+00  0.0000000000000000e+00 0.0000000000000000e+00 0.0000000000000000e+00  0.0000000000000000e+00 0.0000000000000000e+00 0.0000000000000000e+00  0.0000000000000000e+00 0.0000000000000000e+00 0.0000000000000000e+00  0.0000000000000000e+00 0.0000000000000000e+00 0.0000000000000000e+00  0.0000000000000000e+00 0.0000000000000000e+00 0.0000000000000000e+00  0.0000000000000000e+00 0.0000000000000000e+00 0.0000000000000000e+00  0.0000000000000000e+00 0.0000000000000000e+00 0.0000000000000000e+00  0.0000000000000000e+00 0.0000000000000000e+00 0.0000000000000000e+00  0.0000000000000000e+00 0.0000000000000000e+00 0.0000000000000000e+00  0.0000000000000000e+00 0.0000000000000000e+00 0.0000000000000000e+00  0.0000000000000000e+00 0.0000000000000000e+00 0.0000000000000000e+00  0.0000000000000000e+00 0.0000000000000000e+00 0.0000000000000000e+00  0.0000000000000000e+00 0.0000000000000000e+00 0.0000000000000000e+00  0.0000000000000000e+00 0.0000000000000000e+00 0.0000000000000000e+00  0.0000000000000000e+00 0.0000000000000000e+00 0.0000000000000000e+00  0.0000000000000000e+00 0.0000000000000000e+00 0.0000000000000000e+00  0.0000000000000000e+00 0.0000000000000000e+00 0.0000000000000000e+00  0.0000000000000000e+00 0.0000000000000000e+00 0.0000000000000000e+00  0.0000000000000000e+00 0.0000000000000000e+00 0.0000000000000000e+00  0.0000000000000000e+00 0.0000000000000000e+00 0.0000000000000000e+00  0.0000000000000000e+00 0.0000000000000000e+00 0.0000000000000000e+00  0.0000000000000000e+00 0.0000000000000000e+00 0.0000000000000000e+00  0.0000000000000000e+00 0.0000000000000000e+00 0.0000000000000000e+00  0.0000000000000000e+00 0.0000000000000000e+00 0.0000000000000000e+00  0.0000000000000000e+00 0.0000000000000000e+00 0.0000000000000000e+00  0.0000000000000000e+00 0.0000000000000000e+00 0.0000000000000000e+00  0.0000000000000000e+00 0.0000000000000000e+00 0.0000000000000000e+00  0.0000000000000000e+00 0.0000000000000000e+00 0.0000000000000000e+00  0.0000000000000000e+00 0.0000000000000000e+00 0.0000000000000000e+00  0.0000000000000000e+00 0.0000000000000000e+00 0.0000000000000000e+00  0.0000000000000000e+00 0.0000000000000000e+00 0.0000000000000000e+00  0.0000000000000000e+00 0.0000000000000000e+00 0.0000000000000000e+00  0.0000000000000000e+00 0.0000000000000000e+00 0.0000000000000000e+00  0.0000000000000000e+00 0.0000000000000000e+00 0.0000000000000000e+00  0.0000000000000000e+00 0.0000000000000000e+00 0.0000000000000000e+00  0.0000000000000000e+00 0.0000000000000000e+00 0.0000000000000000e+00  0.0000000000000000e+00 0.0000000000000000e+00 0.0000000000000000e+00  0.0000000000000000e+00 0.0000000000000000e+00 0.0000000000000000e+00  0.0000000000000000e+00 0.0000000000000000e+00 0.0000000000000000e+00  0.0000000000000000e+00 0.0000000000000000e+00 0.0000000000000000e+00  0.0000000000000000e+00 0.0000000000000000e+00 0.0000000000000000e+00  0.0000000000000000e+00 0.0000000000000000e+00 0.0000000000000000e+00  0.0000000000000000e+00 0.0000000000000000e+00 0.0000000000000000e+00  0.0000000000000000e+00 0.0000000000000000e+00 0.0000000000000000e+00  0.0000000000000000e+00 0.0000000000000000e+00 0.0000000000000000e+00  0.0000000000000000e+00 0.0000000000000000e+00 0.0000000000000000e+00  0.0000000000000000e+00 0.0000000000000000e+00 0.0000000000000000e+00  0.0000000000000000e+00 0.0000000000000000e+00 0.0000000000000000e+00  0.0000000000000000e+00 0.0000000000000000e+00 0.0000000000000000e+00  0.0000000000000000e+00 0.0000000000000000e+00 0.0000000000000000e+00  0.0000000000000000e+00 0.0000000000000000e+00 0.0000000000000000e+00  0.0000000000000000e+00 0.0000000000000000e+00 0.0000000000000000e+00  0.0000000000000000e+00 0.0000000000000000e+00 0.0000000000000000e+00  0.0000000000000000e+00 0.0000000000000000e+00 0.0000000000000000e+00  0.0000000000000000e+00 0.0000000000000000e+00 0.0000000000000000e+00  0.0000000000000000e+00 0.0000000000000000e+00 0.0000000000000000e+00  0.0000000000000000e+00 0.0000000000000000e+00 0.0000000000000000e+00  0.0000000000000000e+00 0.0000000000000000e+00 0.0000000000000000e+00  0.0000000000000000e+00 0.0000000000000000e+00 0.0000000000000000e+00  0.0000000000000000e+00 0.0000000000000000e+00 0.0000000000000000e+00  0.0000000000000000e+00 0.0000000000000000e+00 0.0000000000000000e+00  0.0000000000000000e+00 0.0000000000000000e+00 0.0000000000000000e+00  0.0000000000000000e+00 0.0000000000000000e+00 0.0000000000000000e+00  0.0000000000000000e+00 0.0000000000000000e+00 0.0000000000000000e+00  0.0000000000000000e+00 0.0000000000000000e+00 0.0000000000000000e+00  0.0000000000000000e+00 0.0000000000000000e+00 0.0000000000000000e+00  0.0000000000000000e+00 0.0000000000000000e+00 0.0000000000000000e+00  0.0000000000000000e+00 0.0000000000000000e+00 0.0000000000000000e+00  0.0000000000000000e+00 0.0000000000000000e+00 0.0000000000000000e+00  0.0000000000000000e+00 0.0000000000000000e+00 0.0000000000000000e+00  0.0000000000000000e+00 0.0000000000000000e+00 0.0000000000000000e+00  0.0000000000000000e+00 0.0000000000000000e+00 0.0000000000000000e+00  0.0000000000000000e+00 0.0000000000000000e+00 0.0000000000000000e+00  0.0000000000000000e+00 0.0000000000000000e+00 0.0000000000000000e+00  0.0000000000000000e+00 0.0000000000000000e+00 0.0000000000000000e+00  0.0000000000000000e+00 0.0000000000000000e+00 0.0000000000000000e+00  0.0000000000000000e+00 0.0000000000000000e+00 0.0000000000000000e+00  0.0000000000000000e+00 0.0000000000000000e+00 0.0000000000000000e+00  0.0000000000000000e+00 0.0000000000000000e+00 0.0000000000000000e+00  0.0000000000000000e+00 0.0000000000000000e+00 0.0000000000000000e+00  0.0000000000000000e+00 0.0000000000000000e+00 0.0000000000000000e+00  0.0000000000000000e+00 0.0000000000000000e+00 0.0000000000000000e+00  0.0000000000000000e+00 0.0000000000000000e+00 0.0000000000000000e+00  0.0000000000000000e+00 0.0000000000000000e+00 0.0000000000000000e+00  0.0000000000000000e+00 0.0000000000000000e+00 0.0000000000000000e+00  0.0000000000000000e+00 0.0000000000000000e+00 0.0000000000000000e+00  0.0000000000000000e+00 0.0000000000000000e+00 0.0000000000000000e+00  0.0000000000000000e+00 0.0000000000000000e+00 0.0000000000000000e+00  0.0000000000000000e+00 0.0000000000000000e+00 0.0000000000000000e+00  0.0000000000000000e+00 0.0000000000000000e+00 0.0000000000000000e+00  0.0000000000000000e+00 0.0000000000000000e+00 0.0000000000000000e+00  0.0000000000000000e+00 0.0000000000000000e+00 0.0000000000000000e+00  0.0000000000000000e+00 0.0000000000000000e+00 0.0000000000000000e+00  0.0000000000000000e+00 0.0000000000000000e+00 0.0000000000000000e+00  0.0000000000000000e+00 0.0000000000000000e+00 0.0000000000000000e+00  0.0000000000000000e+00 0.0000000000000000e+00 0.0000000000000000e+00  0.0000000000000000e+00 0.0000000000000000e+00 0.0000000000000000e+00  0.0000000000000000e+00 0.0000000000000000e+00 0.0000000000000000e+00  0.0000000000000000e+00 0.0000000000000000e+00 0.0000000000000000e+00  0.0000000000000000e+00 0.0000000000000000e+00 0.0000000000000000e+00  0.0000000000000000e+00 0.0000000000000000e+00 0.0000000000000000e+00  0.0000000000000000e+00 0.0000000000000000e+00 0.0000000000000000e+00  0.0000000000000000e+00 0.0000000000000000e+00 0.0000000000000000e+00  0.0000000000000000e+00 0.0000000000000000e+00 0.0000000000000000e+00  0.0000000000000000e+00 0.0000000000000000e+00 0.0000000000000000e+00  0.0000000000000000e+00 0.0000000000000000e+00 0.0000000000000000e+00  0.0000000000000000e+00 0.0000000000000000e+00 0.0000000000000000e+00  0.0000000000000000e+00 0.0000000000000000e+00 0.0000000000000000e+00  0.0000000000000000e+00 0.0000000000000000e+00 0.0000000000000000e+00  0.0000000000000000e+00 0.0000000000000000e+00 0.0000000000000000e+00  0.0000000000000000e+00 0.0000000000000000e+00 0.0000000000000000e+00  0.0000000000000000e+00 0.0000000000000000e+00 0.0000000000000000e+00  0.0000000000000000e+00 0.0000000000000000e+00 0.0000000000000000e+00  0.0000000000000000e+00 0.0000000000000000e+00 0.0000000000000000e+00  0.0000000000000000e+00 0.0000000000000000e+00 0.0000000000000000e+00  0.0000000000000000e+00 0.0000000000000000e+00 0.0000000000000000e+00  0.0000000000000000e+00 0.0000000000000000e+00 0.0000000000000000e+00  0.0000000000000000e+00 0.0000000000000000e+00 0.0000000000000000e+00  0.0000000000000000e+00 0.0000000000000000e+00 0.0000000000000000e+00  0.0000000000000000e+00 0.0000000000000000e+00 0.0000000000000000e+00  0.0000000000000000e+00 0.0000000000000000e+00 0.0000000000000000e+00  0.0000000000000000e+00 0.0000000000000000e+00 0.0000000000000000e+00  0.0000000000000000e+00 0.0000000000000000e+00 0.0000000000000000e+00  0.0000000000000000e+00 0.0000000000000000e+00 0.0000000000000000e+00  0.0000000000000000e+00 0.0000000000000000e+00 0.0000000000000000e+00  0.0000000000000000e+00 0.0000000000000000e+00 0.0000000000000000e+00  0.0000000000000000e+00 0.0000000000000000e+00 0.0000000000000000e+00  0.0000000000000000e+00 0.0000000000000000e+00 0.0000000000000000e+00  0.0000000000000000e+00 0.0000000000000000e+00 0.0000000000000000e+00  0.0000000000000000e+00 0.0000000000000000e+00 0.0000000000000000e+00  0.0000000000000000e+00 0.0000000000000000e+00 0.0000000000000000e+00  0.0000000000000000e+00 0.0000000000000000e+00 0.0000000000000000e+00  0.0000000000000000e+00 0.0000000000000000e+00 0.0000000000000000e+00  0.0000000000000000e+00 0.0000000000000000e+00 0.0000000000000000e+00  0.0000000000000000e+00 0.0000000000000000e+00 0.0000000000000000e+00  0.0000000000000000e+00 0.0000000000000000e+00 0.0000000000000000e+00  0.0000000000000000e+00 0.0000000000000000e+00 0.0000000000000000e+00  0.0000000000000000e+00 0.0000000000000000e+00 0.0000000000000000e+00  0.0000000000000000e+00 0.0000000000000000e+00 0.0000000000000000e+00  0.0000000000000000e+00 0.0000000000000000e+00 0.0000000000000000e+00  0.0000000000000000e+00 0.0000000000000000e+00 0.0000000000000000e+00  0.0000000000000000e+00 0.0000000000000000e+00 0.0000000000000000e+00  0.0000000000000000e+00 0.0000000000000000e+00 0.0000000000000000e+00  0.0000000000000000e+00 0.0000000000000000e+00 0.0000000000000000e+00  0.0000000000000000e+00 0.0000000000000000e+00 0.0000000000000000e+00  0.0000000000000000e+00 0.0000000000000000e+00 0.0000000000000000e+00  0.0000000000000000e+00 0.0000000000000000e+00 0.0000000000000000e+00  0.0000000000000000e+00 0.0000000000000000e+00 0.0000000000000000e+00  0.0000000000000000e+00 0.0000000000000000e+00 0.0000000000000000e+00  0.0000000000000000e+00 0.0000000000000000e+00 0.0000000000000000e+00  0.0000000000000000e+00 0.0000000000000000e+00 0.0000000000000000e+00  0.0000000000000000e+00 0.0000000000000000e+00 0.0000000000000000e+00  0.0000000000000000e+00 0.0000000000000000e+00 0.0000000000000000e+00  0.0000000000000000e+00 0.0000000000000000e+00 0.0000000000000000e+00  0.0000000000000000e+00 0.0000000000000000e+00 0.0000000000000000e+00  0.0000000000000000e+00 0.0000000000000000e+00 0.0000000000000000e+00  0.0000000000000000e+00 0.0000000000000000e+00 0.0000000000000000e+00  0.0000000000000000e+00 0.0000000000000000e+00 0.0000000000000000e+00  0.0000000000000000e+00 0.0000000000000000e+00 0.0000000000000000e+00  0.0000000000000000e+00 0.0000000000000000e+00 0.0000000000000000e+00  0.0000000000000000e+00 0.0000000000000000e+00 -3.0000000000000000e+00  -3.1677376756805631e-01 -6.9727178957336378e-02 -2.9824138714630779e+00  -2.9437849056156229e-01 -1.3619399252281994e-01 -2.9824138714630779e+00  -2.5821840251460126e-01 -1.9629252636668681e-01 -2.9824138714630779e+00  -2.0998430895520029e-01 -2.4721263984112196e-01 -2.9824138714630779e+00  -1.5193158248985128e-01 -2.8657336503370201e-01 -2.9824138714630779e+00  -8.6774704087102361e-02 -3.1253423818072501e-01 -2.9824138714630779e+00  -1.7560336964396586e-02 -3.2388135770727333e-01 -2.9824138714630779e+00  5.2475131997852031e-02 -3.2008414491570392e-01 -2.9824138714630779e+00  1.2005692210980073e-01 -3.0132015325585404e-01 -2.9824138714630779e+00  1.8202498397757977e-01 -2.6846676612305553e-01 -2.9824138714630779e+00  2.3548175990080791e-01 -2.2306017138572332e-01 -2.9824138714630779e+00  2.7792767045025069e-01 -1.6722353094796960e-01 -2.9824138714630779e+00  3.0737799202386140e-01 -1.0356770405869398e-01 -2.9824138714630779e+00  3.2245566031653683e-01 -3.5069166434870874e-02 -2.9824138714630779e+00  3.2245566031653683e-01 3.5069166434870874e-02 -2.9824138714630779e+00  3.0737799202386140e-01 1.0356770405869398e-01 -2.9824138714630779e+00  2.7792767045025069e-01 1.6722353094796960e-01 -2.9824138714630779e+00  2.3548175990080791e-01 2.2306017138572332e-01 -2.9824138714630779e+00  1.8202498397757977e-01 2.6846676612305553e-01 -2.9824138714630779e+00  1.2005692210980073e-01 3.0132015325585404e-01 -2.9824138714630779e+00  5.2475131997852031e-02 3.2008414491570392e-01 -2.9824138714630779e+00  -1.7560336964396586e-02 3.2388135770727333e-01 -2.9824138714630779e+00  -8.6774704087102361e-02 3.1253423818072501e-01 -2.9824138714630779e+00  -1.5193158248985128e-01 2.8657336503370201e-01 -2.9824138714630779e+00  -2.0998430895520029e-01 2.4721263984112196e-01 -2.9824138714630779e+00  -2.5821840251460348e-01 1.9629252636668681e-01 -2.9824138714630779e+00  -2.9437849056156229e-01 1.3619399252281994e-01 -2.9824138714630779e+00  -3.1677376756805631e-01 6.9727178957336378e-02 -2.9824138714630779e+00  -3.2435705527182535e-01 0.0000000000000000e+00 -2.9824138714630779e+00  -6.4491132063307144e-01 0.0000000000000000e+00 -2.9298616671302602e+00  -6.2983365234039601e-01 -1.3863687049356488e-01 -2.9298616671302602e+00  -5.8530566247411220e-01 -2.7079123500666358e-01 -2.9298616671302602e+00  -5.1340943035105857e-01 -3.9028370233369497e-01 -2.9298616671302602e+00  -4.1750674387838771e-01 -4.9152693750878096e-01 -2.9298616671302602e+00  -3.0208190608738050e-01 -5.6978691937890957e-01 -2.9298616671302602e+00  -1.7253205410765060e-01 -6.2140429817155796e-01 -2.9298616671302602e+00  -3.4914795033455445e-02 -6.4396550262297936e-01 -2.9298616671302602e+00  1.0433504105149893e-01 -6.3641559588799845e-01 -2.9298616671302602e+00  2.3870628657695361e-01 -5.9910760321442713e-01 -2.9298616671302602e+00  3.6191589144505154e-01 -5.3378600487482397e-01 -2.9298616671302602e+00  4.6820271146980375e-01 -4.4350516620781089e-01 -2.9298616671302602e+00  5.5259689307616577e-01 -3.3248651888950675e-01 -2.9298616671302602e+00  6.1115225812962071e-01 -2.0592117148015632e-01 -2.9298616671302602e+00  6.4113082283988376e-01 -6.9727178957336378e-02 -2.9298616671302602e+00  6.4113082283988376e-01 6.9727178957336378e-02 -2.9298616671302602e+00  6.1115225812962071e-01 2.0592117148015632e-01 -2.929861